 Gaussian 09, Revision A.01,

 ----------------------------------------------------------------------
 # opt freq=hinderedrotor UM062X/6-311++g(d,p) press=0.987 symm=loose
 ----------------------------------------------------------------------

 ---------
 [CH2]-T_1
 ---------
 Symbolic Z-matrix:
 Charge =  0 Multiplicity = 3

 SCF Done:  E(UM062X) =  -39.1419472588     A.U. after   10 cycles
 Optimization completed.
    -- Stationary point found.
 Normal termination of Gaussian 09 at Thu Mar 17 11:55:41 2022.

 ----------------------------------------------------------------------
 #N Geom=AllCheck Guess=TCheck SCRF=Check GenChk UM062X/6-311++G(d,p) F
 req
 ----------------------------------------------------------------------

 [CH2]-T_1
 ---------
 Redundant internal coordinates taken from checkpoint file:
 [CH2]-T.chk
 Charge =  0 Multiplicity = 3

 SCF Done:  E(UM062X) =  -39.1419472588     A.U. after    1 cycles

 The electronic state is 3-B1.
 Alpha  occ. eigenvalues --  -10.57315  -0.76745  -0.52584  -0.34310  -0.30442
 Alpha virt. eigenvalues --    0.00533   0.02901   0.08136   0.08743   0.12572
 Alpha virt. eigenvalues --    0.13976   0.17589   0.22739   0.45799   0.51675
 Alpha virt. eigenvalues --    0.56987   0.57984   0.70076   0.79365   1.06119

  Beta  occ. eigenvalues --  -10.55496  -0.67861  -0.50491
  Beta virt. eigenvalues --   -0.06164  -0.03529   0.01956   0.04360   0.09774
  Beta virt. eigenvalues --    0.12342   0.14351   0.14766   0.20360   0.23925
  Beta virt. eigenvalues --    0.47938   0.51008   0.59077   0.59877   0.77968

 Mulliken atomic charges:
              1
     1  C   -0.322305
     2  H    0.161153
     3  H    0.161153
 Sum of Mulliken atomic charges =   0.00000

 Dipole moment (field-independent basis, Debye):
    X=              0.0000    Y=              0.0000    Z=             -0.6823  Tot=              0.6823
 Quadrupole moment (field-independent basis, Debye-Ang):
   XX=             -8.3955   YY=             -5.8975   ZZ=             -7.8476
   XY=              0.0000   XZ=              0.0000   YZ=              0.0000

  Exact polarizability:   9.795   0.000  12.950   0.000   0.000   9.261
 Approx polarizability:   8.512   0.000  12.300   0.000   0.000   8.635

 Optimization completed.
    -- Stationary point found.
 Normal termination of Gaussian 09 at Thu Mar 17 11:55:44 2022.

 ----------------------------------------------------------------------
 # freq=(readfc,hinderedrotor) temp=200 press=0.987 geom=allcheck gue
 ss=read
 ----------------------------------------------------------------------

 [CH2]-T_1
 ---------
 Redundant internal coordinates taken from checkpoint file:
 [CH2]-T.chk
 Charge =  0 Multiplicity = 3

 Normal termination of Gaussian 09 at Thu Mar 17 11:55:44 2022.

 ----------------------------------------------------------------------
 # freq=(readfc,hinderedrotor) temp=250 press=0.987 geom=allcheck gue
 ss=read
 ----------------------------------------------------------------------

 [CH2]-T_1
 ---------
 Redundant internal coordinates taken from checkpoint file:
 [CH2]-T.chk
 Charge =  0 Multiplicity = 3

 Normal termination of Gaussian 09 at Thu Mar 17 11:55:44 2022.

 ----------------------------------------------------------------------
 # freq=(readfc,hinderedrotor) temp=300 press=0.987 geom=allcheck gue
 ss=read
 ----------------------------------------------------------------------

 [CH2]-T_1
 ---------
 Redundant internal coordinates taken from checkpoint file:
 [CH2]-T.chk
 Charge =  0 Multiplicity = 3

 ----------------------------------------------------------------------
 # freq=(readfc,hinderedrotor) temp=350 press=0.987 geom=allcheck gue
 ss=read
 ----------------------------------------------------------------------

 [CH2]-T_1
 ---------
 Redundant internal coordinates taken from checkpoint file:
 [CH2]-T.chk
 Charge =  0 Multiplicity = 3

 Normal termination of Gaussian 09 at Thu Mar 17 11:56:00 2022.
 Normal termination of Gaussian 09 at Thu Mar 17 11:56:00 2022.
 Normal termination of Gaussian 09 at Thu Mar 17 11:56:00 2022.
 Gaussian 09:  EM64L-G09RevA.01  8-May-2009

                         Standard orientation:
 ---------------------------------------------------------------------
 Center     Atomic      Atomic             Coordinates (Angstroms)
 Number     Number       Type             X           Y           Z
 ---------------------------------------------------------------------
      1          6           0        0.000000    0.000000    0.104203
      2          1           0        0.000000    0.994486   -0.312609
      3          1           0        0.000000   -0.994486   -0.312609
 ---------------------------------------------------------------------

                     1                      2                      3
                    ?A                     A1                     ?B
 Frequencies --  1099.4595              3205.4180              3428.8825
 Red. masses --     1.1357                 1.0275                 1.1382
 Frc consts  --     0.8089                 6.2199                 7.8842
 IR Inten    --    14.3895                 1.1327                 0.9683

 - Thermochemistry -
 -------------------
 Temperature   298.150 Kelvin.  Pressure   0.987 Atm.
 Atom     1 has atomic number  6 and mass  12.00000

 Molecular mass:    14.01565 amu.
 Principal axes and moments of inertia in atomic units:
                           1         2         3
     Eigenvalues --     1.07069   7.11886   8.18954
           X            0.00000   0.00000   1.00000
           Y            1.00000   0.00000   0.00000
           Z            0.00000   1.00000   0.00000
 This molecule is an asymmetric top.
 Rotational symmetry number  2.
 Rotational temperatures (Kelvin)     80.89560    12.16682    10.57615
 Rotational constants (GHZ):        1685.59285   253.51566   220.37146
 Zero-point vibrational energy      46258.2 (Joules/Mol)
                                   11.05596 (Kcal/Mol)
 Vibrational temperatures:   1581.88  4611.88  4933.39
          (Kelvin)

 Zero-point correction=                           0.017619 (Hartree/Particle)
 Thermal correction to Energy=                    0.020476
 Thermal correction to Enthalpy=                  0.021421
 Thermal correction to Gibbs Free Energy=        -0.000752
 Sum of electronic and zero-point Energies=            -39.124328
 Sum of electronic and thermal Energies=               -39.121471
 Sum of electronic and thermal Enthalpies=             -39.120527
 Sum of electronic and thermal Free Energies=          -39.142699

                     E (Thermal)             CV                S
                      KCal/Mol        Cal/Mol-Kelvin    Cal/Mol-Kelvin
 Total                   12.849              6.242             46.666
 Electronic               0.000              0.000              2.183
 Translational            0.889              2.981             33.887
 Rotational               0.889              2.981             10.533
 Vibrational             11.072              0.281              0.062

 Normal termination of Gaussian 09 at Thu Mar 17 11:56:00 2022.
