 Gaussian 09, Revision A.01,

 ----------------------------------------------------------
 # opt freq=hinderedrotor M062X/6-311++g(d,p) press=0.987
 ----------------------------------------------------------

 --------
 [H][H]_1
 --------
 Symbolic Z-matrix:
 Charge =  0 Multiplicity = 1

 SCF Done:  E(RM062X) =  -1.16492607601     A.U. after    6 cycles
 SCF Done:  E(RM062X) =  -1.16828899856     A.U. after    5 cycles
 SCF Done:  E(RM062X) =  -1.16829956291     A.U. after    4 cycles
 Optimization completed.
    -- Stationary point found.
 Normal termination of Gaussian 09 at Thu Mar 17 09:05:01 2022.

 ----------------------------------------------------------------------
 #N Geom=AllCheck Guess=TCheck SCRF=Check GenChk RM062X/6-311++G(d,p) F
 req
 ----------------------------------------------------------------------

 [H][H]_1
 --------
 Redundant internal coordinates taken from checkpoint file:
 [H][H].chk
 Charge =  0 Multiplicity = 1

 SCF Done:  E(RM062X) =  -1.16829956291     A.U. after    1 cycles

 The electronic state is 1-SGG.
 Alpha  occ. eigenvalues --   -0.49631
 Alpha virt. eigenvalues --    0.03308   0.03367   0.18571   0.38448   0.65513
 Alpha virt. eigenvalues --    1.24410   1.24410   1.66380   1.86845   1.86845
 Alpha virt. eigenvalues --    2.15068   2.59351   3.79841

 Mulliken atomic charges:
              1
     1  H    0.000000
     2  H    0.000000
 Sum of Mulliken atomic charges =   0.00000

 Dipole moment (field-independent basis, Debye):
    X=              0.0000    Y=              0.0000    Z=              0.0000  Tot=              0.0000
 Quadrupole moment (field-independent basis, Debye-Ang):
   XX=             -2.0764   YY=             -2.0764   ZZ=             -1.5070
   XY=              0.0000   XZ=              0.0000   YZ=              0.0000

  Exact polarizability:   1.054   0.000   1.054   0.000   0.000   6.650
 Approx polarizability:   1.017   0.000   1.017   0.000   0.000   6.364

 Optimization completed.
    -- Stationary point found.
 Normal termination of Gaussian 09 at Thu Mar 17 09:05:02 2022.

 ----------------------------------------------------------------------
 # freq=(readfc,hinderedrotor) temp=200 press=0.987 geom=allcheck gue
 ss=read
 ----------------------------------------------------------------------

 [H][H]_1
 --------
 Redundant internal coordinates taken from checkpoint file:
 [H][H].chk
 Charge =  0 Multiplicity = 1

 Normal termination of Gaussian 09 at Thu Mar 17 09:05:02 2022.

 ----------------------------------------------------------------------
 # freq=(readfc,hinderedrotor) temp=250 press=0.987 geom=allcheck gue
 ss=read
 ----------------------------------------------------------------------

 [H][H]_1
 --------
 Redundant internal coordinates taken from checkpoint file:
 [H][H].chk
 Charge =  0 Multiplicity = 1

 Normal termination of Gaussian 09 at Thu Mar 17 09:05:02 2022.

 ----------------------------------------------------------------------
 # freq=(readfc,hinderedrotor) temp=300 press=0.987 geom=allcheck gue
 ss=read
 ----------------------------------------------------------------------

 [H][H]_1
 --------
 Redundant internal coordinates taken from checkpoint file:
 [H][H].chk
 Charge =  0 Multiplicity = 1

 ----------------------------------------------------------------------
 # freq=(readfc,hinderedrotor) temp=350 press=0.987 geom=allcheck gue
 ss=read
 ----------------------------------------------------------------------

 [H][H]_1
 --------
 Redundant internal coordinates taken from checkpoint file:
 [H][H].chk
 Charge =  0 Multiplicity = 1

 Normal termination of Gaussian 09 at Thu Mar 17 09:05:18 2022.
 Normal termination of Gaussian 09 at Thu Mar 17 09:05:19 2022.
 Normal termination of Gaussian 09 at Thu Mar 17 09:05:19 2022.
 Gaussian 09:  EM64L-G09RevA.01  8-May-2009

                         Standard orientation:
 ---------------------------------------------------------------------
 Center     Atomic      Atomic             Coordinates (Angstroms)
 Number     Number       Type             X           Y           Z
 ---------------------------------------------------------------------
      1          1           0        0.000000    0.000000    0.370138
      2          1           0        0.000000    0.000000   -0.370138
 ---------------------------------------------------------------------

                     1
                    SGG
 Frequencies --  4468.7577
 Red. masses --     1.0078
 Frc consts  --    11.8579
 IR Inten    --     0.0000

 - Thermochemistry -
 -------------------
 Temperature   298.150 Kelvin.  Pressure   0.987 Atm.
 Atom     1 has atomic number  1 and mass   1.00783

 Molecular mass:     2.01565 amu.
 Principal axes and moments of inertia in atomic units:
                           1         2         3
     Eigenvalues --     0.00000   0.98614   0.98614
           X            0.00000   1.00000   0.00000
           Y            0.00000   0.00000   1.00000
           Z            1.00000   0.00000   0.00000
 This molecule is a prolate symmetric top.
 Rotational symmetry number  2.
 Rotational temperature (Kelvin)     87.83094
 Rotational constant (GHZ):        1830.101945
 Zero-point vibrational energy      26729.1 (Joules/Mol)
                                    6.38841 (Kcal/Mol)
 Vibrational temperatures:   6429.54
          (Kelvin)

 Zero-point correction=                           0.010181 (Hartree/Particle)
 Thermal correction to Energy=                    0.012541
 Thermal correction to Enthalpy=                  0.013485
 Thermal correction to Gibbs Free Energy=        -0.001313
 Sum of electronic and zero-point Energies=             -1.158119
 Sum of electronic and thermal Energies=                -1.155759
 Sum of electronic and thermal Enthalpies=              -1.154814
 Sum of electronic and thermal Free Energies=           -1.169612

                     E (Thermal)             CV                S
                      KCal/Mol        Cal/Mol-Kelvin    Cal/Mol-Kelvin
 Total                    7.870              4.968             31.145
 Electronic               0.000              0.000              0.000
 Translational            0.889              2.981             28.106
 Rotational               0.592              1.987              3.039
 Vibrational              6.388              0.000              0.000

 Normal termination of Gaussian 09 at Thu Mar 17 09:05:19 2022.
