 Gaussian 09, Revision A.01,

 ---------------------------------------------------------------------
 # opt freq=hinderedrotor M062X/6-311++g(d,p) press=0.987 symm=loose
 ---------------------------------------------------------------------

 -----
 CCC_1
 -----
 Symbolic Z-matrix:
 Charge =  0 Multiplicity = 1

 SCF Done:  E(RM062X) =  -119.100670081     A.U. after   10 cycles
 Optimization completed.
    -- Stationary point found.

 1\1\GINC-LOCALHOST\FOpt\RM062X\6-311++G(d,p)\C3H8\ROOT\17-Mar-2022\0\\
 # opt freq=hinderedrotor M062X/6-311++g(d,p) press=0.987 symm=loose\
 \CCC_1\\0,1\C,-1.266044,-0.261307,0.0000000769\C,0.00000011,0.592869,0
 .0000000769\C,1.2660440139,-0.2613073055,0.0000000769\H,-2.168362,0.35
 3598,0.0000000769\H,-1.297559,-0.906102,-0.882438\H,-1.297559,-0.90610
 2,0.8824381538\H,0.000000189,1.247836,0.876297\H,0.000000189,1.247836,
 -0.8762968462\H,2.1683621622,0.3535974768,0.0000000769\H,1.2975588583,
 -0.9061023131,-0.882438\H,1.2975588583,-0.9061023131,0.8824381538\\Ver

 Normal termination of Gaussian 09 at Thu Mar 17 11:53:24 2022.

 ----------------------------------------------------------------------
 #N Geom=AllCheck Guess=TCheck SCRF=Check GenChk RM062X/6-311++G(d,p) F
 req
 ----------------------------------------------------------------------

 CCC_1
 -----
 Redundant internal coordinates taken from checkpoint file:
 CCC.chk
 Charge =  0 Multiplicity = 1

 SCF Done:  E(RM062X) =  -119.100670081     A.U. after    1 cycles

 The electronic state is 1-A1.
 Alpha  occ. eigenvalues --  -10.52859 -10.51989 -10.51987  -0.87869  -0.76972
 Alpha  occ. eigenvalues --   -0.66615  -0.52753  -0.50463  -0.46120  -0.44309
 Alpha  occ. eigenvalues --   -0.39534  -0.39494  -0.38645
 Alpha virt. eigenvalues --    0.00158   0.01963   0.02117   0.02351   0.04704
 Alpha virt. eigenvalues --    0.05414   0.05535   0.06195   0.08257   0.10559
 Alpha virt. eigenvalues --    0.11694   0.12458   0.13099   0.13421   0.13965

 Mulliken atomic charges:
              1
     1  C   -0.475475
     2  C   -0.220390
     3  C   -0.475475
     4  H    0.149552
     5  H    0.144445
     6  H    0.144445
     7  H    0.147227
     8  H    0.147227
     9  H    0.149552
    10  H    0.144445
    11  H    0.144445
 Sum of Mulliken atomic charges =   0.00000

 Dipole moment (field-independent basis, Debye):
    X=              0.0000    Y=              0.0000    Z=              0.0882  Tot=              0.0882
 Quadrupole moment (field-independent basis, Debye-Ang):
   XX=            -21.5869   YY=            -22.3506   ZZ=            -22.0762
   XY=              0.0000   XZ=              0.0000   YZ=              0.0000

  Exact polarizability:  35.585   0.000  41.432   0.000   0.000  37.238
 Approx polarizability:  42.156   0.000  41.779   0.000   0.000  42.356

 Optimization completed.
    -- Stationary point found.

 1\1\GINC-LOCALHOST\Freq\RM062X\6-311++G(d,p)\C3H8\ROOT\17-Mar-2022\0\\
 #N Geom=AllCheck Guess=TCheck SCRF=Check GenChk RM062X/6-311++G(d,p) F
 req\\CCC_1\\0,1\C,-1.266044,-0.261307,0.0000000769\C,0.00000011,0.5928
 69,0.0000000769\C,1.2660440139,-0.2613073055,0.0000000769\H,-2.168362,
 0.353598,0.0000000769\H,-1.297559,-0.906102,-0.882438\H,-1.297559,-0.9
 06102,0.8824381538\H,0.000000189,1.247836,0.876297\H,0.000000189,1.247
 836,-0.8762968462\H,2.1683621622,0.3535974768,0.0000000769\H,1.2975588
 583,-0.9061023131,-0.882438\H,1.2975588583,-0.9061023131,0.8824381538\

 Normal termination of Gaussian 09 at Thu Mar 17 11:55:20 2022.

 ----------------------------------------------------------------------
 # freq=(readfc,hinderedrotor) temp=200 press=0.987 geom=allcheck gue
 ss=read
 ----------------------------------------------------------------------

 CCC_1
 -----
 Redundant internal coordinates taken from checkpoint file:
 CCC.chk
 Charge =  0 Multiplicity = 1

 Normal termination of Gaussian 09 at Thu Mar 17 11:55:21 2022.

 ----------------------------------------------------------------------
 # freq=(readfc,hinderedrotor) temp=250 press=0.987 geom=allcheck gue
 ss=read
 ----------------------------------------------------------------------

 CCC_1
 -----
 Redundant internal coordinates taken from checkpoint file:
 CCC.chk
 Charge =  0 Multiplicity = 1

 Normal termination of Gaussian 09 at Thu Mar 17 11:55:21 2022.

 CCC_1
 -----
 Redundant internal coordinates taken from checkpoint file:
 CCC.chk
 Charge =  0 Multiplicity = 1

 CCC_1
 -----
 Redundant internal coordinates taken from checkpoint file:
 CCC.chk
 Charge =  0 Multiplicity = 1

 Normal termination of Gaussian 09 at Thu Mar 17 11:55:39 2022.
 Normal termination of Gaussian 09 at Thu Mar 17 11:55:39 2022.
 Normal termination of Gaussian 09 at Thu Mar 17 11:55:39 2022.
 Gaussian 09:  EM64L-G09RevA.01  8-May-2009

                         Standard orientation:
 ---------------------------------------------------------------------
 Center     Atomic      Atomic             Coordinates (Angstroms)
 Number     Number       Type             X           Y           Z
 ---------------------------------------------------------------------
      1          6           0        0.000000    1.266044   -0.261307
      2          6           0        0.000000    0.000000    0.592869
      3          6           0        0.000000   -1.266044   -0.261307
      4          1           0        0.000000    2.168362    0.353598
      5          1           0        0.882438    1.297559   -0.906102
      6          1           0       -0.882438    1.297559   -0.906102
      7          1           0       -0.876297    0.000000    1.247836
      8          1           0        0.876297    0.000000    1.247836
      9          1           0        0.000000   -2.168362    0.353598
     10          1           0        0.882438   -1.297559   -0.906102
     11          1           0       -0.882438   -1.297559   -0.906102
 ---------------------------------------------------------------------

                     1                      2                      3
                    A2                     ?A                     ?B
 Frequencies --   245.0614               300.1505               374.8742
 Red. masses --     1.0279                 1.1355                 2.0663
 Frc consts  --     0.0364                 0.0603                 0.1711
 IR Inten    --     0.0000                 0.0002                 0.0477

                     4                      5                      6
                    ?C                     ?D                     ?E
 Frequencies --   756.1234               892.9146               915.1673
 Red. masses --     1.0792                 2.4740                 1.1028
 Frc consts  --     0.3635                 1.1622                 0.5442
 IR Inten    --     3.2569                 1.0406                 0.0000

                     7                      8                      9
                    ?F                     ?G                     ?H
 Frequencies --   941.7749              1080.2386              1184.5371
 Red. masses --     1.1836                 2.3422                 1.7971
 Frc consts  --     0.6185                 1.6103                 1.4857
 IR Inten    --     2.4023                 0.6885                 1.3421

                    10                     11                     12
                    ?I                     ?E                     ?J
 Frequencies --  1216.0077              1324.0594              1371.6355
 Red. masses --     1.6548                 1.1234                 1.3677
 Frc consts  --     1.4416                 1.1603                 1.5161
 IR Inten    --     0.2318                 0.0000                 0.5070

                    13                     14                     15
                    ?J                     ?K                     A1
 Frequencies --  1413.9106              1425.1078              1499.3779
 Red. masses --     1.3626                 1.2424                 1.0436
 Frc consts  --     1.6049                 1.4866                 1.3823
 IR Inten    --     8.2126                 5.2428                 0.0047

                    16                     17                     18
                    A2                     ?L                     ?L
 Frequencies --  1501.8123              1503.5373              1520.3488
 Red. masses --     1.0373                 1.0520                 1.0841
 Frc consts  --     1.3784                 1.4012                 1.4763
 IR Inten    --     0.0000                 3.0041                 7.7768

                    19                     20                     21
                    B1                     B2                     A1
 Frequencies --  1520.5797              3053.5910              3054.9444
 Red. masses --     1.0403                 1.0356                 1.0386
 Frc consts  --     1.4171                 5.6893                 5.7107
 IR Inten    --    17.8382                28.2502                 7.1519

                    22                     23                     24
                    ?L                     ?A                     ?E
 Frequencies --  3063.0242              3091.4127              3120.9613
 Red. masses --     1.0582                 1.1024                 1.1028
 Frc consts  --     5.8494                 6.2072                 6.3287
 IR Inten    --    34.0694                 1.3576                 0.0000

                    25                     26                     27
                    ?A                     ?L                     ?L
 Frequencies --  3131.9340              3134.1819              3136.1174
 Red. masses --     1.1035                 1.1025                 1.1014
 Frc consts  --     6.3772                 6.3807                 6.3824
 IR Inten    --    73.9517                24.4056                34.9781

 - Thermochemistry -
 -------------------
 Temperature   298.150 Kelvin.  Pressure   0.987 Atm.
 Atom     1 has atomic number  6 and mass  12.00000

 Molecular mass:    44.06260 amu.
 Principal axes and moments of inertia in atomic units:
                           1         2         3
     Eigenvalues --    61.56530 212.19373 240.28408
           X            0.00000   0.00000   1.00000
           Y            1.00000   0.00000   0.00000
           Z            0.00000   1.00000   0.00000
 This molecule is an asymmetric top.
 Rotational symmetry number  2.
 Rotational temperatures (Kelvin)      1.40686     0.40818     0.36046
 Rotational constants (GHZ):          29.31426     8.50516     7.51086
 Zero-point vibrational energy     273785.6 (Joules/Mol)
                                   65.43634 (Kcal/Mol)
 Warning -- explicit consideration of   3 degrees of freedom as
           vibrations may cause significant error
 Identified internal rotation modes:
   34   2
 Vibrational temperatures:    352.59   431.85   539.36  1087.89  1284.70
          (Kelvin)           1316.72  1355.00  1554.22  1704.28  1749.56
                             1905.02  1973.48  2034.30  2050.41  2157.27
                             2160.77  2163.25  2187.44  2187.77  4393.43
                             4395.38  4407.00  4447.85  4490.36  4506.15
                             4509.38  4512.17

 Zero-point correction=                           0.104279 (Hartree/Particle)
 Thermal correction to Energy=                    0.108721
 Thermal correction to Enthalpy=                  0.109665
 Thermal correction to Gibbs Free Energy=         0.079372
 Sum of electronic and zero-point Energies=           -118.996391
 Sum of electronic and thermal Energies=              -118.991949
 Sum of electronic and thermal Enthalpies=            -118.991005
 Sum of electronic and thermal Free Energies=         -119.021298

                     E (Thermal)             CV                S
                      KCal/Mol        Cal/Mol-Kelvin    Cal/Mol-Kelvin
 Total                   68.223             14.613             63.757
 Corrected for
 internal rot.           68.280             15.226             64.209
 Electronic               0.000              0.000              0.000
 Translational            0.889              2.981             37.301
 Rotational               0.889              2.981             21.289
 Vibrational             66.446              8.651              5.166
 Vibration     1          0.660              1.771              1.766
 Vibration     2          0.693              1.673              1.416
 Vibration     3          0.746              1.524              1.060

 Normal termination of Gaussian 09 at Thu Mar 17 11:55:40 2022.
